Title: Circuit1
Date: Thu Aug 08 14:25:22  2013
Plotname: Transient Analysis
Flags: real
No. Variables: 14
No. Points: 28437   
Command: version XSpice 1.0 + Spice3f5
Variables:
